# vtk DataFile Version 3.0
axisymmetric_acoustic_slice
ASCII
DATASET UNSTRUCTURED_GRID
POINTS 962 double
0.00398403 0 0.0220284
0.00433113 0 0.0227434
0.00356095 0 0.0229538
0.0169722 0 0.0184404
0.0163416 0 0.0192708
0.0160999 0 0.0185117
0.0114011 0 0.0132896
0.0104775 0 0.0137244
0.0103696 0 0.0128236
0.00326582 0 0.0222055
0.0108097 0 0.0334777
0.0120006 0 0.0331576
0.0121277 0 0.0343005
0.00115306 0 0.0330808
0.00128055 0 0.0321644
0.00221347 0 0.0325474
0.0154761 0 0.0297175
0.0157641 0 0.0290065
0.0165451 0 0.0291535
0.0170348 0 0.0242905
0.0163687 0 0.0238471
0.0169547 0 0.0232773
0.0183467 0 0.021041
0.0173886 0 0.0204421
0.0184656 0 0.0196833
0.00895632 0 0.0278932
0.0096358 0 0.0284448
0.00873577 0 0.0286488
0.0182133 0 0.0402935
0.0147466 0 0.0410137
0.0163875 0 0.0381516
0.0158425 0 0.0283419
0.0166808 0 0.0277658
0.0393056 0 0.0895983
0.0404595 0 0.0837272
0.0449157 0 0.0856726
0 0 0.0248254
0.000869365 0 0.0251961
0 0 0.0256106
0.0442361 0 0.0791173
0.0396649 0 0.0737689
0.0452072 0 0.0725711
0.0447101 0 0.0559027
0.0380677 0 0.0572839
0.0389618 0 0.0505406
0.0380062 0 0.0792936
0.0125117 0 0.0952556
0.00736796 0 0.0955601
0.010017 0 0.0896233
0.0123328 0 0.0308863
0.012954 0 0.0306331
0.0130857 0 0.0315775
0.026869 0 0.004299
0.0252572 0 0.0098879
0.022694 0 0.00579222
0.00667633 0 0.0220663
0.00727256 0 0.0227001
0.00644681 0 0.0228055
0.0102735 0 0.0289833
0.00987509 0 0.0297324
0.00931063 0 0.029177
0.00827193 0 0.0343105
0.00848557 0 0.0331915
0.0094651 0 0.0338131
0.017334 0 0.0214511
0.0121192 0 0.0315575
0.0165403 0 0.0209263
0.00244074 0 0.0157329
0.00245898 0 0.0148141
0.00318338 0 0.0154218
0.015765 0 0.0274379
0.0178947 0 0.0285172
0.0448529 0 0.0497919
0.004251 0 0.0322091
0.00493607 0 0.0315981
0.00522121 0 0.0322899
0.0172051 0 0.0194773
0.00574013 0 0.0329213
0.00658928 0 0.032678
0.00657395 0 0.0335391
0.0175434 0 0.0744222
0.0117823 0 0.0702488
0.0188976 0 0.0685687
0.0141722 0 0.0384849
0.00691531 0 0.0119566
0.0062316 0 0.012531
0.00561484 0 0.0117347
0.00475124 0 0.0330261
0.00420527 0 0.0115046
0.00321414 0 0.0122536
0.00271132 0 0.0112217
0.0197923 0 0.020726
0 0 0.0144141
0.000840056 0 0.0149431
0 0 0.0153776
0.0270113 0 0.0142041
0.0259424 0 0.0183822
0.023669 0 0.0166252
0.0199131 0 0.0186858
0.00974855 0 0.0276432
0 0 0.0705545
0.00620342 0 0.0734637
0 0 0.0764436
0.00673595 0 0.0371107
0.00669016 0 0.0355906
0.00772754 0 0.0357547
0.00937007 0 0.0125505
0.00862761 0 0.0124681
0.00892525 0 0.0113277
0.000493029 0 0.015761
0.00170598 0 0.0152696
0.0273923 0 0.021538
0.0293607 0 0.0180244
0.0246952 0 0.0365686
0.021137 0 0.0363347
0.0219858 0 0.0342524
0.00326375 0 0.0146348
0.00262856 0 0.0138834
0.0105686 0 0.034863
0.0358339 0 0.084954
0.023519 0 0.0139077
0.0219486 0 0.0115264
0.00160797 0 0.0177248
0.00152827 0 0.0185492
0.000747721 0 0.0181463
0.0450954 0 0.0915529
0.0137706 0 0.02971
0.0136192 0 0.0307024
0.0130293 0 0.0299796
0.00214024 0 0.0336452
0.0196884 0 0.0241793
0.01861 0 0.0231108
0.0199366 0 0.0224943
0.0144755 0 0.0302518
0.0145394 0 0.0293024
0.0177655 0 0.0272152
0.0192931 0 0.0275399
0 0 0.0169733
0.000848919 0 0.017208
0 0 0.0177585
0.0161295 0 0.0341943
0.017477 0 0.0332039
0.0188535 0 0.0345998
0.0415594 0 0.0672132
0.00797319 0 0.0121079
0.00963939 0 0.0134143
0.00877093 0 0.0132712
0.00563067 0 0.0360214
0.00913192 0 0.0353016
0.0394499 0 0.0446418
0.0054518 0 0.0337931
0.000680957 0 0.0243825
0.00642608 0 0.0106882
0.0184467 0 0.0263213
0.0450546 0 0.0438644
0.00917966 0 0.0328564
0.0178003 0 0.0300345
0.0157609 0 0.0205018
0.0159618 0 0.0213171
0.0152271 0 0.0213093
0.0112211 0 0.0120986
0.0119751 0 0.0763667
0.0107869 0 0.0823748
0.0054586 0 0.079355
0.0151132 0 0.0912883
0.0150337 0 0.027845
0.0151928 0 0.0288129
0.0145231 0 0.0284949
0.0310366 0 0.0652084
0.0352034 0 0.069351
0.0295849 0 0.0710096
0.0046899 0 0.0307649
0.00427093 0 0.0313918
0.0171553 0 0.0438813
0.023069 0 0.0226134
0.0247209 0 0.0209813
0.024811 0 0.0240271
0.00538517 0 0.0310715
0.0210991 0 0.0424369
0.019802 0 0.047133
0.0309418 0 0.0220328
0.0414633 0 0.0612331
0.0366563 0 0.0636055
0.0317101 0 0.0138808
0.0296541 0 0.00926766
0.0112738 0 0.0326256
0.00417906 0 0.0914262
0.00759398 0 0.0334947
0.00786788 0 0.0325978
0.0158402 0 0.0141819
0.0151276 0 0.0152041
0.0145388 0 0.0146468
0.00744323 0 0.0218378
0.0164816 0 0.0305007
0.00254593 0 0.0130222
0.00195884 0 0.0122681
0.0323596 0 0.0591957
0.0177729 0 0.0237481
0.0146628 0 0.0644827
0.0150427 0 0.0204933
0.00353256 0 0.010208
0.00112378 0 0.0342652
0.0024808 0 0.0348458
0.00160222 0 0.0361992
0 0 0.0185437
0.000777861 0 0.0189355
0 0 0.0193289
0.00647477 0 0.046743
0.0109102 0 0.0465794
0.00786159 0 0.0515436
0 0 0.0353252
0.0129895 0 0.032742
0.0121549 0 0.0322525
0.0098824 0 0.0328927
0.0146329 0 0.0135687
0.00150642 0 0.0285405
0.00130204 0 0.0291632
0.000679615 0 0.0284987
0.00945478 0 0.0405746
0.00836405 0 0.0435801
0.00686788 0 0.0410953
0.00345718 0 0.0139076
0.0101363 0 0.0151475
0.00939945 0 0.0149325
0.0097364 0 0.0142713
0.00333965 0 0.0131784
0.0104409 0 0.0144719
0.0152164 0 0.0198437
0.0297091 0 0.0298794
0.0257292 0 0.0292105
0.0280198 0 0.0258018
0.0193032 0 0.0293878
0.000774134 0 0.0229601
0.00151888 0 0.0230837
0.00125601 0 0.0237672
0.0084216 0 0.0265247
0.00907772 0 0.0271034
0.00829341 0 0.0273274
0.0157785 0 0.0196925
0.00861254 0 0.0369437
0.0109663 0 0.0148838
0.0111196 0 0.0141689
0.00177204 0 0.0161439
0.00434496 0 0.0339667
0.00054222 0 0.023681
0.0153531 0 0.0309032
0.00501528 0 0.0557958
0.0115662 0 0.0547618
0.0102987 0 0.0603971
0.00110989 0 0.0279948
0.0165078 0 0.0218123
0.00370571 0 0.0287472
0.0035316 0 0.0294821
0.00290511 0 0.0288862
0.0220498 0 0.00897409
0.0214173 0 0.0389727
0.00375929 0 0.0331388
0.0020253 0 0.0297095
0.00211418 0 0.0290377
0 0 0.0400101
0.00174857 0 0.0383467
0.00262294 0 0.0414882
0.0269667 0 0.0330571
0.0245341 0 0.0315334
0.0143148 0 0.0313379
0.0011039 0 0.0158385
0.03093 0 0.0346039
0.0350527 0 0.0367322
0.0290078 0 0.0390057
0.0012679 0 0.0298052
0.0325602 0 0.0262958
0.000900889 0 0.0137926
0.0154662 0 0.0190267
0.0169461 0 0.0162501
0.0163295 0 0.0170497
0.0157699 0 0.0165128
0.0116472 0 0.0146021
0.00171093 0 0.0143335
0.0165062 0 0.0200589
0.000738127 0 0.0260766
0.0151872 0 0.0262381
0.0155959 0 0.025653
0.0160857 0 0.0262406
0.00522005 0 0.0217327
0.00456165 0 0.0216068
0.00486175 0 0.0209239
0.0275805 0 0.0551053
0.0263612 0 0.0609384
0.00510011 0 0.0676099
0.0114081 0 0.0424784
0.0242865 0 0.0459463
0.00552082 0 0.0211153
0.00719731 0 0.0344462
0.0156716 0 0.0267833
0.00205227 0 0.0317077
0.00146626 0 0.0311374
0.00278089 0 0.029631
0.00385665 0 0.0308468
0.00377442 0 0.0391736
0.0166369 0 0.0359607
0.00680804 0 0.0233054
0.00152322 0 0.0258019
0.00137638 0 0.0265949
0.00945491 0 0.0320906
0.00060812 0 0.0164144
0.00753762 0 0.012718
0.00687714 0 0.0129338
0.0126585 0 0.0504628
0.0126785 0 0.0335038
0.0135962 0 0.0338152
0.0101344 0 0.0323216
0.000709675 0 0.0315601
0 0 0.0323212
0.0100881 0 0.0116962
0.00486835 0 0.0374886
0.00421491 0 0.0361395
0.0197287 0 0.0258939
0.0215655 0 0.019736
0.00910371 0 0.0299469
0.0180655 0 0.0221147
0.0189502 0 0.0218974
0.0349712 0 0.0312052
0.0402503 0 0.0292154
0.0399835 0 0.0347511
0.000564368 0 0.0276128
0 0 0.0279662
0.0117078 0 0.0296363
0.0110643 0 0.0292866
0.0117234 0 0.028944
0.0465169 0 0.0617647
0.0466567 0 0.0673686
0.0247653 0 0.026581
0.0110776 0 0.0299309
0.00783139 0 0.0260021
0.00795304 0 0.0252659
0.00854356 0 0.0257946
0.0254354 0 0.0884089
0.029842 0 0.0919722
0.0242818 0 0.0947932
0.0190104 0 0.0177627
0.02 0 0.0166667
0.0449057 0 0.0147059
0.0449057 0 0.0205882
0.0393306 0 0.0181661
0.0086103 0 0.0322941
0.00722327 0 0.0328752
0.0213961 0 0.0216301
0.00814163 0 0.0223174
0.00820938 0 0.0215202
0.0140888 0 0.0324914
0.000710221 0 0.0197211
0.0159317 0 0.0155166
0.00919938 0 0.0263569
0.00771201 0 0.0109913
0.00504242 0 0.0104238
0.00122608 0 0.0165048
0.00170764 0 0.0169483
0.0204789 0 0.0326238
0.0123435 0 0.0125394
0.0171191 0 0.0148844
0.0157727 0 0.0220357
0.001864 0 0.0100579
0.00968049 0 0.0304452
0.00411583 0 0.0300723
0.0129871 0 0.0146237
0.0137358 0 0.0140615
0.013657 0 0.0151749
0.0150555 0 0.022162
0.00145774 0 0.0193501
0.00140539 0 0.0201334
0.0168708 0 0.0267521
0.0134814 0 0.0253127
0.0141842 0 0.025543
0.0137896 0 0.026151
0.0344971 0 0.0417662
0.00891161 0 0.0144573
0.00907704 0 0.013833
0.00486027 0 0.0618279
0.0124706 0 0.0286754
0.0124068 0 0.0294253
0.00326976 0 0.0323778
0.00359744 0 0.031608
0.0138407 0 0.028853
0.0337768 0 0.0750675
0.0197859 0 0.0900608
0.0186586 0 0.018575
0.0229725 0 0.0299408
0.0230525 0 0.0278838
0 0 0.0528872
0.00365739 0 0.0496504
0.0117794 0 0.03593
0.0217371 0 0.0177156
0 0 0.0132397
0.0400449 0 0.0124494
0.021294 0 0.0233951
0 0 0.0303257
0.000679754 0 0.0307654
0 0 0.0312267
0 0 0.0336635
0.000632544 0 0.0268568
0.0131571 0 0.0259728
0.00864095 0 0.0250741
0.0184969 0 0.0242073
0.0333474 0 0.0529128
0.00506646 0 0.0853221
0.00576983 0 0.0316717
0.0133501 0 0.0354646
0.0150663 0 0.0270213
0.00717823 0 0.0320981
0.00176231 0 0.0133094
0 0 0.01
0.00125319 0 0.0112904
0 0 0.0117945
0 0 0.0374
0.0182988 0 0.0169178
0.0184956 0 0.0157015
0.0186493 0 0.0252622
0.00552125 0 0.0127973
0.00756303 0 0.0210538
0.00130381 0 0.024527
0.00312526 0 0.0453742
0.00519686 0 0.0431189
0.0339122 0 0.0469871
0.00800597 0 0.0317601
0.000636561 0 0.0292832
0.00974834 0 0.0655473
0.0102367 0 0.0363937
0.017177 0 0.0223478
0.0163814 0 0.0226112
0.0227687 0 0.0260651
0.0226238 0 0.024243
0 0 0.0433149
0.00261656 0 0.0219286
0.00282575 0 0.0226217
0.00216335 0 0.0226883
0.00063026 0 0.0300119
0.00587407 0 0.0322802
0.0154952 0 0.0181655
0.0211764 0 0.0251143
0 0 0.0475216
0.00642242 0 0.0320788
0.00484994 0 0.0123681
0.00411818 0 0.0126179
0.0351666 0 0.00967777
0.00190815 0 0.0220173
0.0148804 0 0.0253954
0.000950798 0 0.0125171
0.00276902 0 0.0317032
0.0210091 0 0.0843291
0.015367 0 0.0861549
0.0147518 0 0.0184908
0.0148274 0 0.0176928
0.0131314 0 0.0291739
[...]
POINT_DATA 962
SCALARS pressure_re_pa double 1
LOOKUP_TABLE default
0
0
0
0
0
0
0
0
0
0
0
0
0
0
0
0
0
0
0
0
0
0
0
0
0
0
0
0
0
0
0
0
0
-0
0
-0
0
0
0
-0
-0
-0
-0
-0
-0
0
0
-0
-0
0
0
0
0
-0
0
0
0
0
0
0
0
0
0
0
0
0
0
0
0
0
0
0
-0
0
0
0
0
0
0
0
-0
-0
-0
0
0
0
0
0
0
0
0
0
0
0
0
0
0
0
0
0
-0
-0
-0
0
0
0
0
0
0
0
0
0
-0
0
0
0
0
0
0
-0
0
0
0
0
0
0
0
0
0
0
0
0
0
0
0
0
0
0
0
0
0
0
0
-0
0
0
0
0
0
-0
0
0
0
0
-0
0
0
0
0
0
0
-0
-0
-0
-0
0
0
0
-0
0
-0
0
0
0
0
0
0
0
-0
-0
-0
0
-0
-0
-0
0
-0
0
0
0
0
0
0
0
0
0
-0
0
-0
0
0
0
0
0
0
0
0
0
0
-0
0
0
0
0
0
0
0
0
0
0
0
0
0
0
0
0
0
0
0
0
-0
0
0
0
0
0
0
0
0
0
0
0
0
0
0
0
-0
0
-0
0
0
0
0
0
0
-0
0
0
0
0
0
0
0
0
0
0
-0
-0
0
0
-0
0
0
0
0
0
0
0
0
0
0
0
0
0
0
0
-0
-0
0
-0
0
0
0
0
0
0
0
0
0
0
0
0
0
0
0
0
0
-0
0
0
0
0
0
0
0
0
0
0
0
0
0
0
-0
-0
0
0
0
0
0
0
-0
0
0
0
0
0
-0
-0
-0
0
0
-0
-0
0
0
0
0
0
0
0
0
0
0
0
0
0
0
0
0
0
0
0
0
0
0
0
0
0
0
0
0
0
0
0
0
0
0
-0
0
0
0
0
0
-0
-0
0
0
0
-0
-0
0
0
0
-0
0
0
0
0
0
0
0
0
0
-0
0
0
0
0
0
0
0
0
0
0
0
0
0
0
0
0
0
-0
-0
0
0
0
0
0
0
0
0
-0
0
0
0
0
0
0
-0
0
0
0
0
-0
0
0
-0
0
-0
-0
0
0
0
0
0
0
0
0
0
-0
0
-0
0
0
-0
0
0
0
0
0
-0
0
0
0
0
0
0
0
0
-0
-0
0
-0
0
0
0
0
0
0
0
-0
0
0
0
0
0
0
0
-0
-0
0
0
0
0
0
0
0
0
0
0
0
0
0
0
0
0
-0
0
0
-0
0
0
0
0
0
0
0
0
0
0
0
0
0
0
0
0
0
0
0
0
0
0
-0
0
0
-0
0
0
0
0
0
0
0
0
-0
-0
0
0
0
0
0
0
0
0
0
0
0
0
0
0
0
0
0
0
0
0
0
0
0
0
0
0
0
0
0
0
0
0
0
0
0
0
0
0
0
0
0
0
0
0
0
0
0
0
0
0
0
0
0
0
0
0
0
0
0
0
0
0
0
0
0
0
0
0
0
0
0
0
0
0
0
0
0
0
0
0
0
0
0
0
0
0
0
0
0
0
0
0
0
0
0
0
0
0
0
0
0
0
0
0
0
0
0
0
0
0
0
0
0
0
0
0
0
0
0
0
0
0
0
0
0
0
0
0
0
0
0
0
0
0
0
0
0
0
0
0
0
0
0
0
0
0
0
0
0
0
0
0
0
0
0
0
0
0
0
0
0
0
0
0
0
0
0
0
0
0
0
0
0
0
0
0
0
0
0
0
0
0
0
0
0
0
0
0
0
0
0
0
0
0
0
0
0
0
0
0
0
0
0
0
0
0
0
0
0
0
0
0
0
0
0
0
0
0
0
0
0
0
0
0
0
0
0
0
0
0
0
0
0
0
-0
0
0
0
0
0
-0
0
0
0
0
0
0
0
0
0
0
-0
-0
0
0
-0
0
0
0
0
-0
-0
0
-0
0
0
0
0
0
-0
0
0
0
-0
-0
0
-0
0
0
0
0
0
0
0
0
0
0
0
-0
-0
0
0
-0
0
0
-0
0
-0
-0
0
-0
-0
-0
-0
0
-0
0
-0
0
-0
0
-0
0
-0
-0
0
0
0
0
-0
0
0
0
-0
0
-0
0
-0
0
0
0
0
-0
0
0
-0
0
0
-0
-0
-0
0
0
0
-0
0
-0
-0
0
-0
0
-0
0
0
-0
0
0
-0
-0
0
0
0
0
-0
-0
0
-0
0
0
0
-0
-0
0
-0
-0
-0
0
0
0
0
0
0
-0
0
0
-0
-0
0
0
0
-0
-0
0
-0
0
0
-0
-0
0
-0
0
0
-0
-0
0
-0
SCALARS pressure_im_pa double 1
LOOKUP_TABLE default
-33774.5
-32818
-53084.1
-33089.6
-30245.9
-33898.2
17956.2
26590.5
28381.3
-51559.9
38450.3
24265.2
22615.5
-72130.7
-80658.1
-63564.7
-28516.7
-30434
-35420.8
-19964.1
-20246.1
-18368.6
-10689
-20975.6
-15007.6
32573.8
34872.2
33457
-2326.03
-18937
-9930.27
-30407
-32746.2
-5917.12
-6217.2
1955.04
-125082
-122199
-131002
2799.08
10955
-4757.62
761.288
4603.21
16687.1
324.417
-8989.5
-8387.68
-11473.9
15857
6059.7
5973.99
1969.34
-9467.3
-9045.19
21235.9
26211
12762.4
34136.9
37751
36909.1
45115
46333.7
46915.4
-17969.1
20268.9
-22797.6
-43925.3
-51097.1
-33765.6
-27982.8
-34497.4
-5182.08
-24744.2
-13744.6
-2265.38
-26487.7
12081.3
26028.6
28676.3
-1182.99
-12579.1
-10345.7
-7113.03
10921.5
2491.14
-13920.4
-7689.65
-45856.8
-61240.7
-78131.7
5817.24
-78827.4
-68928.7
-69058.6
9655.94
26370.9
18701.6
-2065.55
33154.9
89035.1
11066
-150609
22793.5
28784
37622.2
31781.2
29902.7
29834.8
-63808.4
-57670
16503.2
-4996.91
23331
10091
2317.25
-38775.1
-57170.1
38281.5
-9743.81
-3020.74
-24580.7
-47231.8
-49289.5
-55130.9
-516.119
-7635.45
-3829.41
3732.44
-54199
2407.91
-6452.52
9833.15
-16668.9
-18333.3
-29547.6
-21624.7
-59436.9
-54722.2
-58463.4
-21043.4
-27813.3
-17264.9
-830.63
24556.3
31809.2
32284.9
13665.3
43399.1
-4737.18
10083.4
-116459
-3080.1
-21063.6
6513.63
46916.5
-37344.5
-24291.5
-21791.6
-19597.7
23564.8
25620.4
20134.9
-35912.3
-32186.5
-23054.4
-25506
-18112.9
-3315.11
4593.47
5882.56
-26504.5
-31341.6
-22068.7
39327.8
39497.4
36303.8
-7313.74
15861.8
-20334.8
-28049.5
452.757
-15679.5
2185.87
10496.3
32940.2
47381.4
40835.2
41623.1
-41683
-37678.1
-30415.5
32387.4
-34900.9
-66706.7
-83086.4
-16879.1
-14956.3
-24141.1
-21137.3
-66161.3
-61852
-41306.6
-47622.9
-59625.3
-57415.6
-63428.1
15695.3
5189.07
41895.9
-64497.4
9699.24
21060.1
45007.5
-26883
-115529
-113569
-125014
5752.53
1012.75
-215.923
-41663.4
29999.3
34741
32069.8
-50716.4
26619.6
-24767.5
-7441.47
9087.6
4694.94
-29491.3
-99443.6
-93122.7
-104603
27628.3
31832.5
27086.7
-27628.4
33791.6
20772.3
19403
-50423.2
-11162.6
-109701
-25681.8
-13077.2
32584.2
-19377.3
-123434
-20423.3
-67632.8
-66757.3
-86464.9
-25852.9
24432.2
-28276.9
-97489.5
-101878
-64191.2
-46528.7
-40109.8
1703.01
4562.75
-12409.9
-59328.8
-13576.8
-22312.5
-4905.31
-107766
-19580
-79902
-29794.3
-44147.7
-40835
-41282.6
11892.6
-66294.9
-26294.8
-128133
-21179.7
-22217.8
-26103.2
-3604.68
-16846.4
-4712.89
-11094.5
6258.07
49226
-10513.8
13093.3
7062.07
36992.5
-25630
-75145.1
-90409.3
-83220.2
-46442.1
-23799.4
-14498.5
15847.5
-118018
-122490
45615.5
-59008.6
22356.8
15158.3
17867.2
15059.2
2829.92
42943
-92965.3
-89803.2
30970.3
-2314.4
-9408.71
-6811.44
23312.3
39131.1
-11268.9
-2290.32
7297.84
34715.1
21198.4
-129892
-131682
21883.7
28530.8
20439.6
8368.78
-703.94
21802.7
29819.7
21656.5
24266.3
28906
19550.1
8570.82
3888.03
-18556.7
-9549.97
3077.65
15386
-2314.9
45357.7
35574.7
27015.1
36232
39453.7
-6481.73
-62877.6
-43802.3
31833.1
18314.2
-32663.1
-54178.2
-47451.2
-17691.3
9602.27
-46801.3
-19888.6
-96298.6
40583.2
-46943.7
-8411.63
-17627.3
-19777.3
-16715.2
-53859.5
-60422.5
-29058.2
-2446.06
-10664.9
-7077.21
-30937.9
35228.1
33574.3
-20977.2
10112.2
12009.9
-45124.8
-45208.5
-9289.83
5635.37
-15054.6
-18406.8
70.8546
10281.4
-65370.8
7390.47
22750
13589.4
-91469.4
10470.1
23704.8
-111347
-102596
-100864
-75103.6
-130480
947.633
30595
-10373.6
11264.9
31025.5
5519.5
6385.54
-21833.4
32553.4
-75881.3
-118075
-99518.9
-106250
-60290.1
-32428
-37981.1
-13780.8
-9009.85
36882
-111654
-17549.6
-11416.1
1567.43
40265.7
-118908
-19262
33394.1
-17354.4
-19591.3
21201.1
30892.1
-58151.7
-61549
-65442.5
-78692.4
-111454
11268.8
-33764.8
13921.4
-35013.8
20463.6
-25916.8
-39597.8
19195.2
-74531.7
-16966
-92575.6
-62152.7
1765.47
-19551.2
-27333.4
-31072.7
1108.97
1936.87
12642.6
-63170.5
-33378.2
-15455.8
-63741.2
999.459
-28785.1
-21642.5
-21850.8
43654.9
-8905.89
-70181.2
-33493.7
-19807.2
-7108.95
463.159
6540.58
2582.64
14247.3
27597.2
-8521.6
-5360.36
6833.38
-18879.3
-15636.7
12944.4
-7538.72
-292.191
19511.3
32535.2
-78501.2
-14978.2
23427.8
-22256.6
-15684.4
-27398.3
-33066.5
31546.5
-11565.1
-7946.6
220.594
-25824.2
-23836.3
18082.9
-78384.3
1757.79
-10004
-80007.7
43287.4
21214.8
13916.6
2414.66
-25536.5
-14914.5
8667.78
-93427.1
42037.1
19801.7
-18490.1
22888.6
18553.5
-9519.95
-12802.4
6539.56
39355.5
18791.8
-22267.1
-10672.6
16950.2
35399.2
5175.67
4148.37
17553.6
4262.81
8083.86
25185.1
32299.7
18478.4
-10470.1
37849.7
27081.5
23856.5
-11675.7
26202.2
29876.2
3158.89
23158.3
-29179.7
-7597.14
28951.9
-29961.5
18124.8
28587
22625.6
28568.9
32149.4
23044.7
-48025.5
31829.4
-48669.6
-7276.24
9267.04
-29400.2
32280
-47184.4
32101.7
-27301.1
33384.2
-43751.2
32770.4
-23549.7
34909.3
33618.4
28798.2
-8788.94
-38437.7
-11567.3
5710.21
-198.715
-15708.6
-29576.1
-27176.4
-80096.6
-73832.1
-59539.6
22203.7
22417.9
-42456.7
-34329.7
-48229.1
25640.4
27293.2
34186.2
-39032.7
-19312.9
-93417.1
-85852.1
-76298.6
-65504.5
41549.3
39937.8
39428.3
-5129.96
-64395.3
-5881.53
-3029.06
6412.9
-50050.2
-65368.3
20978.2
9253.5
12240.9
8354.22
-3102.89
-6314.03
37498.5
39811.2
34821.7
39258.9
-95033.8
17567.6
-23147.1
-15144.8
-17949.5
18360.7
-52669.4
-98618.9
-84052.5
-32784.9
38122.7
34853.8
34392.4
-7997.81
4033.08
9317.12
11422.2
19527.2
5724.07
4878.5
-2826.85
25729.5
29214.2
35776.6
-55521.9
-25098.5
-8705.29
36590.6
-19383.4
-21749.3
9979.52
11210.5
22327
545.2
10718
14816.9
29005.8
35564.2
26716.8
16900.4
-10265.5
-15519.5
43268.9
42814.8
38854.1
1436.55
39040.7
43026.1
43191.1
-18794.9
-3849.39
28892
37426.8
32938.4
-65201.1
6802.57
1751.96
7149.86
44328.4
-4203.58
-8074.94
-1240.35
12164.8
-103691
19462.4
10366.3
-34213.5
-23099.2
-44081.7
32083.1
31325.2
38698.8
15908.6
41647.7
34892.7
44543.3
13898
-44420.5
34914.4
37520.6
-5592.24
-23597.6
-17607.9
32527.3
40096.7
-38061.2
-39512.8
-27138.2
-84673.3
39676.6
42915.4
22957.4
19259.7
28863.8
18407.8
29339.8
21084.4
42083.2
-1802.04
31992.6
-101257
-109990
-20584.5
14245.5
-73612.5
-56226
17975.9
5072.31
34839.2
14470.4
-31434.3
28368.7
-114868
6198.1
37194.7
36001.5
-41952
-41311.5
-100632
-90163
26795.1
17324.3
-13073.2
20444
37943.1
-2329.76
-101833
32626.8
29264.5
23617.4
20913.1
21764.1
-14371.7
28974.5
3546.49
-4439.38
6647
27368
31156.5
23482.3
41762.5
37230.8
41869.1
-4129.38
-13807.7
-11158.3
-16015.2
-29276.1
-15208
-27960.5
-13309.5
-11304.3
43799.2
42229
24555.8
4864.38
38086.4
31394.9
5368.64
-113708
-19290.5
3469.34
34713
-110104
-9829.91
33494.7
39945.5
-9081.34
-19321.4
31467.7
3603.28
22485.2
-15811.3
15089
39900.5
14848.4
-34194.8
12928.9
25451.5
-3979.27
12769.4
-4132.97
-9903.56
43265.9
-1493.42
10589
6518.58
26433.4
-11055.4
-18221.3
6393.38
32598.9
18254.8
-67116.5
-85893.2
-11961.6
15252.9
36509
28522.9
31417.7
6912.85
15970.1
29622
29970.2
-14636.2
-1319.31
-17399.5
-20804.6
-19550.9
-23329.2
-17925
-74.595
38435.5
-37435.6
-133703
-133790
104056
19300
88618.2
-98779.4
-127025
-119873
-116554
-97552.5
-107386
-77647.4
-79025.1
-87190.7
-69554
-62550.9
-88912.9
-8684.48
3169.72
3223.06
-20082
-7460.92
-10496.1
7604.46
-7437.65
6340.32
-20539.6
13388.4
11386.9
-17505
-45027.4
-931.453
-11081.4
-2946.64
6447.47
-11547.4
-124170
-86465.5
-1739.36
-68904.4
16723.2
-15140
-18103.1
-1866.28
13798
-15379.5
21100.5
32805
-3967.92
4534
13684.1
30014.1
636.954
-37612.6
41470.5
-22663.9
10434.9
-28113.1
-13959.2
36443.6
-1899.96
32842.4
5720.7
1465.52
-9123.46
-102302
-9327.5
16562.4
-77809.2
8551.32
-24785.4
-45713.2
-34869.5
28715.4
-29266.9
8239.72
-275.019
-20829.3
-28676.7
16904.2
40063.8
-21332.5
-22197.9
-36734.5
10426.3
1588.4
-8882.29
-4082.89
-14363.6
-1218.14
26889.2
18269.8
16528.9
-36757.5
-17066
7786.89
-15735.9
-31485.9
5052.72
-24608.3
-14039.4
-10124.3
4031.5
19334.3
-30060.3
-32641.7
-23812.9
-18133.7
21714.2
-131853
-27467
-30796.2
-11.7387
-1671.76
-38347.9
-27806.5
22056.7
30625.6
13647.3
33927.2
-11380.8
-22154.4
1246.07
-6816.01
-14368.3
7503.66
-16109.2
6935.3
-2847.2
-29125.2
11800.1
-8670.51
-27834.7
-26284.3
37084.1
SCALARS pressure_abs_pa double 1
LOOKUP_TABLE default
33774.5
32818
53084.1
33089.6
30245.9
33898.2
17956.2
26590.5
28381.3
51559.9
38450.3
24265.2
22615.5
72130.7
80658.1
63564.7
28516.7
30434
35420.8
19964.1
20246.1
18368.6
10689
20975.6
15007.6
32573.8
34872.2
33457
2326.03
18937
9930.27
30407
32746.2
5917.12
6217.2
1955.04
125082
122199
131002
2799.08
10955
4757.62
761.288
4603.21
16687.1
324.417
8989.5
8387.68
11473.9
15857
6059.7
5973.99
1969.34
9467.3
9045.19
21235.9
26211
12762.4
34136.9
37751
36909.1
45115
46333.7
46915.4
17969.1
20268.9
22797.6
43925.3
51097.1
33765.6
27982.8
34497.4
5182.08
24744.2
13744.6
2265.38
26487.7
12081.3
26028.6
28676.3
1182.99
12579.1
10345.7
7113.03
10921.5
2491.14
13920.4
7689.65
45856.8
61240.7
78131.7
5817.24
78827.4
68928.7
69058.6
9655.94
26370.9
18701.6
2065.55
33154.9
89035.1
11066
150609
22793.5
28784
37622.2
31781.2
29902.7
29834.8
63808.4
57670
16503.2
4996.91
23331
10091
2317.25
38775.1
57170.1
38281.5
9743.81
3020.74
24580.7
47231.8
49289.5
55130.9
516.119
7635.45
3829.41
3732.44
54199
2407.91
6452.52
9833.15
16668.9
18333.3
29547.6
21624.7
59436.9
54722.2
58463.4
21043.4
27813.3
17264.9
830.63
24556.3
31809.2
32284.9
13665.3
43399.1
4737.18
10083.4
116459
3080.1
21063.6
6513.63
46916.5
37344.5
24291.5
21791.6
19597.7
23564.8
25620.4
20134.9
35912.3
32186.5
23054.4
25506
18112.9
3315.11
4593.47
5882.56
26504.5
31341.6
22068.7
39327.8
39497.4
36303.8
7313.74
15861.8
20334.8
28049.5
452.757
15679.5
2185.87
10496.3
32940.2
47381.4
40835.2
41623.1
41683
37678.1
30415.5
32387.4
34900.9
66706.7
83086.4
16879.1
14956.3
24141.1
21137.3
66161.3
61852
41306.6
47622.9
59625.3
57415.6
63428.1
15695.3
5189.07
41895.9
64497.4
9699.24
21060.1
45007.5
26883
115529
113569
125014
5752.53
1012.75
215.923
41663.4
29999.3
34741
32069.8
50716.4
26619.6
24767.5
7441.47
9087.6
4694.94
29491.3
99443.6
93122.7
104603
27628.3
31832.5
27086.7
27628.4
33791.6
20772.3
19403
50423.2
11162.6
109701
25681.8
13077.2
32584.2
19377.3
123434
20423.3
67632.8
66757.3
86464.9
25852.9
24432.2
28276.9
97489.5
101878
64191.2
46528.7
40109.8
1703.01
4562.75
12409.9
59328.8
13576.8
22312.5
4905.31
107766
19580
79902
29794.3
44147.7
40835
41282.6
11892.6
66294.9
26294.8
128133
21179.7
22217.8
26103.2
3604.68
16846.4
4712.89
11094.5
6258.07
49226
10513.8
13093.3
7062.07
36992.5
25630
75145.1
90409.3
83220.2
46442.1
23799.4
14498.5
15847.5
118018
122490
45615.5
59008.6
22356.8
15158.3
17867.2
15059.2
2829.92
42943
92965.3
89803.2
30970.3
2314.4
9408.71
6811.44
23312.3
39131.1
11268.9
2290.32
7297.84
34715.1
21198.4
129892
131682
21883.7
28530.8
20439.6
8368.78
703.94
21802.7
29819.7
21656.5
24266.3
28906
19550.1
8570.82
3888.03
18556.7
9549.97
3077.65
15386
2314.9
45357.7
35574.7
27015.1
36232
39453.7
6481.73
62877.6
43802.3
31833.1
18314.2
32663.1
54178.2
47451.2
17691.3
9602.27
46801.3
19888.6
96298.6
40583.2
46943.7
8411.63
17627.3
19777.3
16715.2
53859.5
60422.5
29058.2
2446.06
10664.9
7077.21
30937.9
35228.1
33574.3
20977.2
10112.2
12009.9
45124.8
45208.5
9289.83
5635.37
15054.6
18406.8
70.8546
10281.4
65370.8
7390.47
22750
13589.4
91469.4
10470.1
23704.8
111347
102596
100864
75103.6
130480
947.633
30595
10373.6
11264.9
31025.5
5519.5
6385.54
21833.4
32553.4
75881.3
118075
99518.9
106250
60290.1
32428
37981.1
13780.8
9009.85
36882
111654
17549.6
11416.1
1567.43
40265.7
118908
19262
33394.1
17354.4
19591.3
21201.1
30892.1
58151.7
61549
65442.5
78692.4
111454
11268.8
33764.8
13921.4
35013.8
20463.6
25916.8
39597.8
19195.2
74531.7
16966
92575.6
62152.7
1765.47
19551.2
27333.4
31072.7
1108.97
1936.87
12642.6
63170.5
33378.2
15455.8
63741.2
999.459
28785.1
21642.5
21850.8
43654.9
8905.89
70181.2
33493.7
19807.2
7108.95
463.159
6540.58
2582.64
14247.3
27597.2
8521.6
5360.36
6833.38
18879.3
15636.7
12944.4
7538.72
292.191
19511.3
32535.2
78501.2
14978.2
23427.8
22256.6
15684.4
27398.3
33066.5
31546.5
11565.1
7946.6
220.594
25824.2
23836.3
18082.9
78384.3
1757.79
10004
80007.7
43287.4
21214.8
13916.6
2414.66
25536.5
14914.5
8667.78
93427.1
42037.1
19801.7
18490.1
22888.6
18553.5
9519.95
12802.4
6539.56
39355.5
18791.8
22267.1
10672.6
16950.2
35399.2
5175.67
4148.37
17553.6
4262.81
8083.86
25185.1
32299.7
18478.4
10470.1
37849.7
27081.5
23856.5
11675.7
26202.2
29876.2
3158.89
23158.3
29179.7
7597.14
28951.9
29961.5
18124.8
28587
22625.6
28568.9
32149.4
23044.7
48025.5
31829.4
48669.6
7276.24
9267.04
29400.2
32280
47184.4
32101.7
27301.1
33384.2
43751.2
32770.4
23549.7
34909.3
33618.4
28798.2
8788.94
38437.7
11567.3
5710.21
198.715
15708.6
29576.1
27176.4
80096.6
73832.1
59539.6
22203.7
22417.9
42456.7
34329.7
48229.1
25640.4
27293.2
34186.2
39032.7
19312.9
93417.1
85852.1
76298.6
65504.5
41549.3
39937.8
39428.3
5129.96
64395.3
5881.53
3029.06
6412.9
50050.2
65368.3
20978.2
9253.5
12240.9
8354.22
3102.89
6314.03
37498.5
39811.2
34821.7
39258.9
95033.8
17567.6
23147.1
15144.8
17949.5
18360.7
52669.4
98618.9
84052.5
32784.9
38122.7
34853.8
34392.4
7997.81
4033.08
9317.12
11422.2
19527.2
5724.07
4878.5
2826.85
25729.5
29214.2
35776.6
55521.9
25098.5
8705.29
36590.6
19383.4
21749.3
9979.52
11210.5
22327
545.2
10718
14816.9
29005.8
35564.2
26716.8
16900.4
10265.5
15519.5
43268.9
42814.8
38854.1
1436.55
39040.7
43026.1
43191.1
18794.9
3849.39
28892
37426.8
32938.4
65201.1
6802.57
1751.96
7149.86
44328.4
4203.58
8074.94
1240.35
12164.8
103691
19462.4
10366.3
34213.5
23099.2
44081.7
32083.1
31325.2
38698.8
15908.6
41647.7
34892.7
44543.3
13898
44420.5
34914.4
37520.6
5592.24
23597.6
17607.9
32527.3
40096.7
38061.2
39512.8
27138.2
84673.3
39676.6
42915.4
22957.4
19259.7
28863.8
18407.8
29339.8
21084.4
42083.2
1802.04
31992.6
101257
109990
20584.5
14245.5
73612.5
56226
17975.9
5072.31
34839.2
14470.4
31434.3
28368.7
114868
6198.1
37194.7
36001.5
41952
41311.5
100632
90163
26795.1
17324.3
13073.2
20444
37943.1
2329.76
101833
32626.8
29264.5
23617.4
20913.1
21764.1
14371.7
28974.5
3546.49
4439.38
6647
27368
31156.5
23482.3
41762.5
37230.8
41869.1
4129.38
13807.7
11158.3
16015.2
29276.1
15208
27960.5
13309.5
11304.3
43799.2
42229
24555.8
4864.38
38086.4
31394.9
5368.64
113708
19290.5
3469.34
34713
110104
9829.91
33494.7
39945.5
9081.34
19321.4
31467.7
3603.28
22485.2
15811.3
15089
39900.5
14848.4
34194.8
12928.9
25451.5
3979.27
12769.4
4132.97
9903.56
43265.9
1493.42
10589
6518.58
26433.4
11055.4
18221.3
6393.38
32598.9
18254.8
67116.5
85893.2
11961.6
15252.9
36509
28522.9
31417.7
6912.85
15970.1
29622
29970.2
14636.2
1319.31
17399.5
20804.6
19550.9
23329.2
17925
74.595
38435.5
37435.6
133703
133790
104056
19300
88618.2
98779.4
127025
119873
116554
97552.5
107386
77647.4
79025.1
87190.7
69554
62550.9
88912.9
8684.48
3169.72
3223.06
20082
7460.92
10496.1
7604.46
7437.65
6340.32
20539.6
13388.4
11386.9
17505
45027.4
931.453
11081.4
2946.64
6447.47
11547.4
124170
86465.5
1739.36
68904.4
16723.2
15140
18103.1
1866.28
13798
15379.5
21100.5
32805
3967.92
4534
13684.1
30014.1
636.954
37612.6
41470.5
22663.9
10434.9
28113.1
13959.2
36443.6
1899.96
32842.4
5720.7
1465.52
9123.46
102302
9327.5
16562.4
77809.2
8551.32
24785.4
45713.2
34869.5
28715.4
29266.9
8239.72
275.019
20829.3
28676.7
16904.2
40063.8
21332.5
22197.9
36734.5
10426.3
1588.4
8882.29
4082.89
14363.6
1218.14
26889.2
18269.8
16528.9
36757.5
17066
7786.89
15735.9
31485.9
5052.72
24608.3
14039.4
10124.3
4031.5
19334.3
30060.3
32641.7
23812.9
18133.7
21714.2
131853
27467
30796.2
11.7387
1671.76
38347.9
27806.5
22056.7
30625.6
13647.3
33927.2
11380.8
22154.4
1246.07
6816.01
14368.3
7503.66
16109.2
6935.3
2847.2
29125.2
11800.1
8670.51
27834.7
26284.3
37084.1
SCALARS pressure_phase_rad double 1
LOOKUP_TABLE default
-1.5708
-1.5708
-1.5708
-1.5708
-1.5708
-1.5708
1.5708
1.5708
1.5708
-1.5708
1.5708
1.5708
1.5708
-1.5708
-1.5708
-1.5708
-1.5708
-1.5708
-1.5708
-1.5708
-1.5708
-1.5708
-1.5708
-1.5708
-1.5708
1.5708
1.5708
1.5708
-1.5708
-1.5708
-1.5708
-1.5708
-1.5708
-1.5708
-1.5708
1.5708
-1.5708
-1.5708
-1.5708
1.5708
1.5708
-1.5708
1.5708
1.5708
1.5708
1.5708
-1.5708
-1.5708
-1.5708
1.5708
1.5708
1.5708
1.5708
-1.5708
-1.5708
1.5708
1.5708
1.5708
1.5708
1.5708
1.5708
1.5708
1.5708
1.5708
-1.5708
1.5708
-1.5708
-1.5708
-1.5708
-1.5708
-1.5708
-1.5708
-1.5708
-1.5708
-1.5708
-1.5708
-1.5708
1.5708
1.5708
1.5708
-1.5708
-1.5708
-1.5708
-1.5708
1.5708
1.5708
-1.5708
-1.5708
-1.5708
-1.5708
-1.5708
1.5708
-1.5708
-1.5708
-1.5708
1.5708
1.5708
1.5708
-1.5708
1.5708
1.5708
1.5708
-1.5708
1.5708
1.5708
1.5708
1.5708
1.5708
1.5708
-1.5708
-1.5708
1.5708
-1.5708
1.5708
1.5708
1.5708
-1.5708
-1.5708
1.5708
-1.5708
-1.5708
-1.5708
-1.5708
-1.5708
-1.5708
-1.5708
-1.5708
-1.5708
1.5708
-1.5708
1.5708
-1.5708
1.5708
-1.5708
-1.5708
-1.5708
-1.5708
-1.5708
-1.5708
-1.5708
-1.5708
-1.5708
-1.5708
-1.5708
1.5708
1.5708
1.5708
1.5708
1.5708
-1.5708
1.5708
-1.5708
-1.5708
-1.5708
1.5708
1.5708
-1.5708
-1.5708
-1.5708
-1.5708
1.5708
1.5708
1.5708
-1.5708
-1.5708
-1.5708
-1.5708
-1.5708
-1.5708
1.5708
1.5708
-1.5708
-1.5708
-1.5708
1.5708
1.5708
1.5708
-1.5708
1.5708
-1.5708
-1.5708
1.5708
-1.5708
1.5708
1.5708
1.5708
1.5708
1.5708
1.5708
-1.5708
-1.5708
-1.5708
1.5708
-1.5708
-1.5708
-1.5708
-1.5708
-1.5708
-1.5708
-1.5708
-1.5708
-1.5708
-1.5708
-1.5708
-1.5708
-1.5708
-1.5708
1.5708
1.5708
1.5708
-1.5708
1.5708
1.5708
1.5708
-1.5708
-1.5708
-1.5708
-1.5708
1.5708
1.5708
-1.5708
-1.5708
1.5708
1.5708
1.5708
-1.5708
1.5708
-1.5708
-1.5708
1.5708
1.5708
-1.5708
-1.5708
-1.5708
-1.5708
1.5708
1.5708
1.5708
-1.5708
1.5708
1.5708
1.5708
-1.5708
-1.5708
-1.5708
-1.5708
-1.5708
1.5708
-1.5708
-1.5708
-1.5708
-1.5708
-1.5708
-1.5708
-1.5708
1.5708
-1.5708
-1.5708
-1.5708
-1.5708
-1.5708
-1.5708
1.5708
1.5708
-1.5708
-1.5708
-1.5708
-1.5708
-1.5708
-1.5708
-1.5708
-1.5708
-1.5708
-1.5708
-1.5708
-1.5708
1.5708
-1.5708
-1.5708
-1.5708
-1.5708
-1.5708
-1.5708
-1.5708
-1.5708
-1.5708
-1.5708
1.5708